-- Generated [
-- Exported by: PyReSiTo (single) v1.0
-- Generated ]
SPECGRID
60 60 5 1 F
/
DIMENS  
60 60 5
/
COORD   
    0.00	    0.00	 2355.00	    0.00	    0.00	 2505.00
   30.00	    0.00	 2355.00	   30.00	    0.00	 2505.00
   60.00	    0.00	 2355.00	   60.00	    0.00	 2505.00
   90.00	    0.00	 2355.00	   90.00	    0.00	 2505.00
  120.00	    0.00	 2355.00	  120.00	    0.00	 2505.00
  150.00	    0.00	 2355.00	  150.00	    0.00	 2505.00
  180.00	    0.00	 2355.00	  180.00	    0.00	 2505.00
  210.00	    0.00	 2355.00	  210.00	    0.00	 2505.00
  240.00	    0.00	 2355.00	  240.00	    0.00	 2505.00
  270.00	    0.00	 2355.00	  270.00	    0.00	 2505.00
  300.00	    0.00	 2355.00	  300.00	    0.00	 2505.00
  330.00	    0.00	 2355.00	  330.00	    0.00	 2505.00
  360.00	    0.00	 2355.00	  360.00	    0.00	 2505.00
  390.00	    0.00	 2355.00	  390.00	    0.00	 2505.00
  420.00	    0.00	 2355.00	  420.00	    0.00	 2505.00
  450.00	    0.00	 2355.00	  450.00	    0.00	 2505.00
  480.00	    0.00	 2355.00	  480.00	    0.00	 2505.00
  510.00	    0.00	 2355.00	  510.00	    0.00	 2505.00
  540.00	    0.00	 2355.00	  540.00	    0.00	 2505.00
  570.00	    0.00	 2355.00	  570.00	    0.00	 2505.00
  600.00	    0.00	 2355.00	  600.00	    0.00	 2505.00
  630.00	    0.00	 2355.00	  630.00	    0.00	 2505.00
  660.00	    0.00	 2355.00	  660.00	    0.00	 2505.00
  690.00	    0.00	 2355.00	  690.00	    0.00	 2505.00
  720.00	    0.00	 2355.00	  720.00	    0.00	 2505.00
  750.00	    0.00	 2355.00	  750.00	    0.00	 2505.00
  780.00	    0.00	 2355.00	  780.00	    0.00	 2505.00
  810.00	    0.00	 2355.00	  810.00	    0.00	 2505.00
  840.00	    0.00	 2355.00	  840.00	    0.00	 2505.00
  870.00	    0.00	 2355.00	  870.00	    0.00	 2505.00
  900.00	    0.00	 2355.00	  900.00	    0.00	 2505.00
  930.00	    0.00	 2355.00	  930.00	    0.00	 2505.00
  960.00	    0.00	 2355.00	  960.00	    0.00	 2505.00
  990.00	    0.00	 2355.00	  990.00	    0.00	 2505.00
 1020.00	    0.00	 2355.00	 1020.00	    0.00	 2505.00
 1050.00	    0.00	 2355.00	 1050.00	    0.00	 2505.00
 1080.00	    0.00	 2355.00	 1080.00	    0.00	 2505.00
 1110.00	    0.00	 2355.00	 1110.00	    0.00	 2505.00
 1140.00	    0.00	 2355.00	 1140.00	    0.00	 2505.00
 1170.00	    0.00	 2355.00	 1170.00	    0.00	 2505.00
 1200.00	    0.00	 2355.00	 1200.00	    0.00	 2505.00
 1230.00	    0.00	 2355.00	 1230.00	    0.00	 2505.00
 1260.00	    0.00	 2355.00	 1260.00	    0.00	 2505.00
 1290.00	    0.00	 2355.00	 1290.00	    0.00	 2505.00
 1320.00	    0.00	 2355.00	 1320.00	    0.00	 2505.00
 1350.00	    0.00	 2355.00	 1350.00	    0.00	 2505.00
 1380.00	    0.00	 2355.00	 1380.00	    0.00	 2505.00
 1410.00	    0.00	 2355.00	 1410.00	    0.00	 2505.00
 1440.00	    0.00	 2355.00	 1440.00	    0.00	 2505.00
 1470.00	    0.00	 2355.00	 1470.00	    0.00	 2505.00
 1500.00	    0.00	 2355.00	 1500.00	    0.00	 2505.00
 1530.00	    0.00	 2355.00	 1530.00	    0.00	 2505.00
 1560.00	    0.00	 2355.00	 1560.00	    0.00	 2505.00
 1590.00	    0.00	 2355.00	 1590.00	    0.00	 2505.00
 1620.00	    0.00	 2355.00	 1620.00	    0.00	 2505.00
 1650.00	    0.00	 2355.00	 1650.00	    0.00	 2505.00
 1680.00	    0.00	 2355.00	 1680.00	    0.00	 2505.00
 1710.00	    0.00	 2355.00	 1710.00	    0.00	 2505.00
 1740.00	    0.00	 2355.00	 1740.00	    0.00	 2505.00
 1770.00	    0.00	 2355.00	 1770.00	    0.00	 2505.00
 1800.00	    0.00	 2355.00	 1800.00	    0.00	 2505.00
    0.00	   30.00	 2355.00	    0.00	   30.00	 2505.00
   30.00	   30.00	 2355.00	   30.00	   30.00	 2505.00
   60.00	   30.00	 2355.00	   60.00	   30.00	 2505.00
   90.00	   30.00	 2355.00	   90.00	   30.00	 2505.00
  120.00	   30.00	 2355.00	  120.00	   30.00	 2505.00
  150.00	   30.00	 2355.00	  150.00	   30.00	 2505.00
  180.00	   30.00	 2355.00	  180.00	   30.00	 2505.00
  210.00	   30.00	 2355.00	  210.00	   30.00	 2505.00
  240.00	   30.00	 2355.00	  240.00	   30.00	 2505.00
  270.00	   30.00	 2355.00	  270.00	   30.00	 2505.00
  300.00	   30.00	 2355.00	  300.00	   30.00	 2505.00
  330.00	   30.00	 2355.00	  330.00	   30.00	 2505.00
  360.00	   30.00	 2355.00	  360.00	   30.00	 2505.00
  390.00	   30.00	 2355.00	  390.00	   30.00	 2505.00
  420.00	   30.00	 2355.00	  420.00	   30.00	 2505.00
  450.00	   30.00	 2355.00	  450.00	   30.00	 2505.00
  480.00	   30.00	 2355.00	  480.00	   30.00	 2505.00
  510.00	   30.00	 2355.00	  510.00	   30.00	 2505.00
  540.00	   30.00	 2355.00	  540.00	   30.00	 2505.00
  570.00	   30.00	 2355.00	  570.00	   30.00	 2505.00
  600.00	   30.00	 2355.00	  600.00	   30.00	 2505.00
  630.00	   30.00	 2355.00	  630.00	   30.00	 2505.00
  660.00	   30.00	 2355.00	  660.00	   30.00	 2505.00
  690.00	   30.00	 2355.00	  690.00	   30.00	 2505.00
  720.00	   30.00	 2355.00	  720.00	   30.00	 2505.00
  750.00	   30.00	 2355.00	  750.00	   30.00	 2505.00
  780.00	   30.00	 2355.00	  780.00	   30.00	 2505.00
  810.00	   30.00	 2355.00	  810.00	   30.00	 2505.00
  840.00	   30.00	 2355.00	  840.00	   30.00	 2505.00
  870.00	   30.00	 2355.00	  870.00	   30.00	 2505.00
  900.00	   30.00	 2355.00	  900.00	   30.00	 2505.00
  930.00	   30.00	 2355.00	  930.00	   30.00	 2505.00
  960.00	   30.00	 2355.00	  960.00	   30.00	 2505.00
  990.00	   30.00	 2355.00	  990.00	   30.00	 2505.00
 1020.00	   30.00	 2355.00	 1020.00	   30.00	 2505.00
 1050.00	   30.00	 2355.00	 1050.00	   30.00	 2505.00
 1080.00	   30.00	 2355.00	 1080.00	   30.00	 2505.00
 1110.00	   30.00	 2355.00	 1110.00	   30.00	 2505.00
 1140.00	   30.00	 2355.00	 1140.00	   30.00	 2505.00
 1170.00	   30.00	 2355.00	 1170.00	   30.00	 2505.00
 1200.00	   30.00	 2355.00	 1200.00	   30.00	 2505.00
 1230.00	   30.00	 2355.00	 1230.00	   30.00	 2505.00
 1260.00	   30.00	 2355.00	 1260.00	   30.00	 2505.00
 1290.00	   30.00	 2355.00	 1290.00	   30.00	 2505.00
 1320.00	   30.00	 2355.00	 1320.00	   30.00	 2505.00
 1350.00	   30.00	 2355.00	 1350.00	   30.00	 2505.00
 1380.00	   30.00	 2355.00	 1380.00	   30.00	 2505.00
 1410.00	   30.00	 2355.00	 1410.00	   30.00	 2505.00
 1440.00	   30.00	 2355.00	 1440.00	   30.00	 2505.00
 1470.00	   30.00	 2355.00	 1470.00	   30.00	 2505.00
 1500.00	   30.00	 2355.00	 1500.00	   30.00	 2505.00
 1530.00	   30.00	 2355.00	 1530.00	   30.00	 2505.00
 1560.00	   30.00	 2355.00	 1560.00	   30.00	 2505.00
 1590.00	   30.00	 2355.00	 1590.00	   30.00	 2505.00
 1620.00	   30.00	 2355.00	 1620.00	   30.00	 2505.00
 1650.00	   30.00	 2355.00	 1650.00	   30.00	 2505.00
 1680.00	   30.00	 2355.00	 1680.00	   30.00	 2505.00
 1710.00	   30.00	 2355.00	 1710.00	   30.00	 2505.00
 1740.00	   30.00	 2355.00	 1740.00	   30.00	 2505.00
 1770.00	   30.00	 2355.00	 1770.00	   30.00	 2505.00
 1800.00	   30.00	 2355.00	 1800.00	   30.00	 2505.00
    0.00	   60.00	 2355.00	    0.00	   60.00	 2505.00
   30.00	   60.00	 2355.00	   30.00	   60.00	 2505.00
   60.00	   60.00	 2355.00	   60.00	   60.00	 2505.00
   90.00	   60.00	 2355.00	   90.00	   60.00	 2505.00
  120.00	   60.00	 2355.00	  120.00	   60.00	 2505.00
  150.00	   60.00	 2355.00	  150.00	   60.00	 2505.00
  180.00	   60.00	 2355.00	  180.00	   60.00	 2505.00
  210.00	   60.00	 2355.00	  210.00	   60.00	 2505.00
  240.00	   60.00	 2355.00	  240.00	   60.00	 2505.00
  270.00	   60.00	 2355.00	  270.00	   60.00	 2505.00
  300.00	   60.00	 2355.00	  300.00	   60.00	 2505.00
  330.00	   60.00	 2355.00	  330.00	   60.00	 2505.00
  360.00	   60.00	 2355.00	  360.00	   60.00	 2505.00
  390.00	   60.00	 2355.00	  390.00	   60.00	 2505.00
  420.00	   60.00	 2355.00	  420.00	   60.00	 2505.00
  450.00	   60.00	 2355.00	  450.00	   60.00	 2505.00
  480.00	   60.00	 2355.00	  480.00	   60.00	 2505.00
  510.00	   60.00	 2355.00	  510.00	   60.00	 2505.00
  540.00	   60.00	 2355.00	  540.00	   60.00	 2505.00
  570.00	   60.00	 2355.00	  570.00	   60.00	 2505.00
  600.00	   60.00	 2355.00	  600.00	   60.00	 2505.00
  630.00	   60.00	 2355.00	  630.00	   60.00	 2505.00
  660.00	   60.00	 2355.00	  660.00	   60.00	 2505.00
  690.00	   60.00	 2355.00	  690.00	   60.00	 2505.00
  720.00	   60.00	 2355.00	  720.00	   60.00	 2505.00
  750.00	   60.00	 2355.00	  750.00	   60.00	 2505.00
  780.00	   60.00	 2355.00	  780.00	   60.00	 2505.00
  810.00	   60.00	 2355.00	  810.00	   60.00	 2505.00
  840.00	   60.00	 2355.00	  840.00	   60.00	 2505.00
  870.00	   60.00	 2355.00	  870.00	   60.00	 2505.00
  900.00	   60.00	 2355.00	  900.00	   60.00	 2505.00
  930.00	   60.00	 2355.00	  930.00	   60.00	 2505.00
  960.00	   60.00	 2355.00	  960.00	   60.00	 2505.00
  990.00	   60.00	 2355.00	  990.00	   60.00	 2505.00
 1020.00	   60.00	 2355.00	 1020.00	   60.00	 2505.00
 1050.00	   60.00	 2355.00	 1050.00	   60.00	 2505.00
 1080.00	   60.00	 2355.00	 1080.00	   60.00	 2505.00
 1110.00	   60.00	 2355.00	 1110.00	   60.00	 2505.00
 1140.00	   60.00	 2355.00	 1140.00	   60.00	 2505.00
 1170.00	   60.00	 2355.00	 1170.00	   60.00	 2505.00
 1200.00	   60.00	 2355.00	 1200.00	   60.00	 2505.00
 1230.00	   60.00	 2355.00	 1230.00	   60.00	 2505.00
 1260.00	   60.00	 2355.00	 1260.00	   60.00	 2505.00
 1290.00	   60.00	 2355.00	 1290.00	   60.00	 2505.00
 1320.00	   60.00	 2355.00	 1320.00	   60.00	 2505.00
 1350.00	   60.00	 2355.00	 1350.00	   60.00	 2505.00
 1380.00	   60.00	 2355.00	 1380.00	   60.00	 2505.00
 1410.00	   60.00	 2355.00	 1410.00	   60.00	 2505.00
 1440.00	   60.00	 2355.00	 1440.00	   60.00	 2505.00
 1470.00	   60.00	 2355.00	 1470.00	   60.00	 2505.00
 1500.00	   60.00	 2355.00	 1500.00	   60.00	 2505.00
 1530.00	   60.00	 2355.00	 1530.00	   60.00	 2505.00
 1560.00	   60.00	 2355.00	 1560.00	   60.00	 2505.00
 1590.00	   60.00	 2355.00	 1590.00	   60.00	 2505.00
 1620.00	   60.00	 2355.00	 1620.00	   60.00	 2505.00
 1650.00	   60.00	 2355.00	 1650.00	   60.00	 2505.00
 1680.00	   60.00	 2355.00	 1680.00	   60.00	 2505.00
 1710.00	   60.00	 2355.00	 1710.00	   60.00	 2505.00
 1740.00	   60.00	 2355.00	 1740.00	   60.00	 2505.00
 1770.00	   60.00	 2355.00	 1770.00	   60.00	 2505.00
 1800.00	   60.00	 2355.00	 1800.00	   60.00	 2505.00
    0.00	   90.00	 2355.00	    0.00	   90.00	 2505.00
   30.00	   90.00	 2355.00	   30.00	   90.00	 2505.00
   60.00	   90.00	 2355.00	   60.00	   90.00	 2505.00
   90.00	   90.00	 2355.00	   90.00	   90.00	 2505.00
  120.00	   90.00	 2355.00	  120.00	   90.00	 2505.00
  150.00	   90.00	 2355.00	  150.00	   90.00	 2505.00
  180.00	   90.00	 2355.00	  180.00	   90.00	 2505.00
  210.00	   90.00	 2355.00	  210.00	   90.00	 2505.00
  240.00	   90.00	 2355.00	  240.00	   90.00	 2505.00
  270.00	   90.00	 2355.00	  270.00	   90.00	 2505.00
  300.00	   90.00	 2355.00	  300.00	   90.00	 2505.00
  330.00	   90.00	 2355.00	  330.00	   90.00	 2505.00
  360.00	   90.00	 2355.00	  360.00	   90.00	 2505.00
  390.00	   90.00	 2355.00	  390.00	   90.00	 2505.00
  420.00	   90.00	 2355.00	  420.00	   90.00	 2505.00
  450.00	   90.00	 2355.00	  450.00	   90.00	 2505.00
  480.00	   90.00	 2355.00	  480.00	   90.00	 2505.00
  510.00	   90.00	 2355.00	  510.00	   90.00	 2505.00
  540.00	   90.00	 2355.00	  540.00	   90.00	 2505.00
  570.00	   90.00	 2355.00	  570.00	   90.00	 2505.00
  600.00	   90.00	 2355.00	  600.00	   90.00	 2505.00
  630.00	   90.00	 2355.00	  630.00	   90.00	 2505.00
  660.00	   90.00	 2355.00	  660.00	   90.00	 2505.00
  690.00	   90.00	 2355.00	  690.00	   90.00	 2505.00
  720.00	   90.00	 2355.00	  720.00	   90.00	 2505.00
  750.00	   90.00	 2355.00	  750.00	   90.00	 2505.00
  780.00	   90.00	 2355.00	  780.00	   90.00	 2505.00
  810.00	   90.00	 2355.00	  810.00	   90.00	 2505.00
  840.00	   90.00	 2355.00	  840.00	   90.00	 2505.00
  870.00	   90.00	 2355.00	  870.00	   90.00	 2505.00
  900.00	   90.00	 2355.00	  900.00	   90.00	 2505.00
  930.00	   90.00	 2355.00	  930.00	   90.00	 2505.00
  960.00	   90.00	 2355.00	  960.00	   90.00	 2505.00
  990.00	   90.00	 2355.00	  990.00	   90.00	 2505.00
 1020.00	   90.00	 2355.00	 1020.00	   90.00	 2505.00
 1050.00	   90.00	 2355.00	 1050.00	   90.00	 2505.00
 1080.00	   90.00	 2355.00	 1080.00	   90.00	 2505.00
 1110.00	   90.00	 2355.00	 1110.00	   90.00	 2505.00
 1140.00	   90.00	 2355.00	 1140.00	   90.00	 2505.00
 1170.00	   90.00	 2355.00	 1170.00	   90.00	 2505.00
 1200.00	   90.00	 2355.00	 1200.00	   90.00	 2505.00
 1230.00	   90.00	 2355.00	 1230.00	   90.00	 2505.00
 1260.00	   90.00	 2355.00	 1260.00	   90.00	 2505.00
 1290.00	   90.00	 2355.00	 1290.00	   90.00	 2505.00
 1320.00	   90.00	 2355.00	 1320.00	   90.00	 2505.00
 1350.00	   90.00	 2355.00	 1350.00	   90.00	 2505.00
 1380.00	   90.00	 2355.00	 1380.00	   90.00	 2505.00
 1410.00	   90.00	 2355.00	 1410.00	   90.00	 2505.00
 1440.00	   90.00	 2355.00	 1440.00	   90.00	 2505.00
 1470.00	   90.00	 2355.00	 1470.00	   90.00	 2505.00
 1500.00	   90.00	 2355.00	 1500.00	   90.00	 2505.00
 1530.00	   90.00	 2355.00	 1530.00	   90.00	 2505.00
 1560.00	   90.00	 2355.00	 1560.00	   90.00	 2505.00
 1590.00	   90.00	 2355.00	 1590.00	   90.00	 2505.00
 1620.00	   90.00	 2355.00	 1620.00	   90.00	 2505.00
 1650.00	   90.00	 2355.00	 1650.00	   90.00	 2505.00
 1680.00	   90.00	 2355.00	 1680.00	   90.00	 2505.00
 1710.00	   90.00	 2355.00	 1710.00	   90.00	 2505.00
 1740.00	   90.00	 2355.00	 1740.00	   90.00	 2505.00
 1770.00	   90.00	 2355.00	 1770.00	   90.00	 2505.00
 1800.00	   90.00	 2355.00	 1800.00	   90.00	 2505.00
    0.00	  120.00	 2355.00	    0.00	  120.00	 2505.00
   30.00	  120.00	 2355.00	   30.00	  120.00	 2505.00
   60.00	  120.00	 2355.00	   60.00	  120.00	 2505.00
   90.00	  120.00	 2355.00	   90.00	  120.00	 2505.00
  120.00	  120.00	 2355.00	  120.00	  120.00	 2505.00
  150.00	  120.00	 2355.00	  150.00	  120.00	 2505.00
  180.00	  120.00	 2355.00	  180.00	  120.00	 2505.00
  210.00	  120.00	 2355.00	  210.00	  120.00	 2505.00
  240.00	  120.00	 2355.00	  240.00	  120.00	 2505.00
  270.00	  120.00	 2355.00	  270.00	  120.00	 2505.00
  300.00	  120.00	 2355.00	  300.00	  120.00	 2505.00
  330.00	  120.00	 2355.00	  330.00	  120.00	 2505.00
  360.00	  120.00	 2355.00	  360.00	  120.00	 2505.00
  390.00	  120.00	 2355.00	  390.00	  120.00	 2505.00
  420.00	  120.00	 2355.00	  420.00	  120.00	 2505.00
  450.00	  120.00	 2355.00	  450.00	  120.00	 2505.00
  480.00	  120.00	 2355.00	  480.00	  120.00	 2505.00
  510.00	  120.00	 2355.00	  510.00	  120.00	 2505.00
  540.00	  120.00	 2355.00	  540.00	  120.00	 2505.00
  570.00	  120.00	 2355.00	  570.00	  120.00	 2505.00
  600.00	  120.00	 2355.00	  600.00	  120.00	 2505.00
  630.00	  120.00	 2355.00	  630.00	  120.00	 2505.00
  660.00	  120.00	 2355.00	  660.00	  120.00	 2505.00
  690.00	  120.00	 2355.00	  690.00	  120.00	 2505.00
  720.00	  120.00	 2355.00	  720.00	  120.00	 2505.00
  750.00	  120.00	 2355.00	  750.00	  120.00	 2505.00
  780.00	  120.00	 2355.00	  780.00	  120.00	 2505.00
  810.00	  120.00	 2355.00	  810.00	  120.00	 2505.00
  840.00	  120.00	 2355.00	  840.00	  120.00	 2505.00
  870.00	  120.00	 2355.00	  870.00	  120.00	 2505.00
  900.00	  120.00	 2355.00	  900.00	  120.00	 2505.00
  930.00	  120.00	 2355.00	  930.00	  120.00	 2505.00
  960.00	  120.00	 2355.00	  960.00	  120.00	 2505.00
  990.00	  120.00	 2355.00	  990.00	  120.00	 2505.00
 1020.00	  120.00	 2355.00	 1020.00	  120.00	 2505.00
 1050.00	  120.00	 2355.00	 1050.00	  120.00	 2505.00
 1080.00	  120.00	 2355.00	 1080.00	  120.00	 2505.00
 1110.00	  120.00	 2355.00	 1110.00	  120.00	 2505.00
 1140.00	  120.00	 2355.00	 1140.00	  120.00	 2505.00
 1170.00	  120.00	 2355.00	 1170.00	  120.00	 2505.00
 1200.00	  120.00	 2355.00	 1200.00	  120.00	 2505.00
 1230.00	  120.00	 2355.00	 1230.00	  120.00	 2505.00
 1260.00	  120.00	 2355.00	 1260.00	  120.00	 2505.00
 1290.00	  120.00	 2355.00	 1290.00	  120.00	 2505.00
 1320.00	  120.00	 2355.00	 1320.00	  120.00	 2505.00
 1350.00	  120.00	 2355.00	 1350.00	  120.00	 2505.00
 1380.00	  120.00	 2355.00	 1380.00	  120.00	 2505.00
 1410.00	  120.00	 2355.00	 1410.00	  120.00	 2505.00
 1440.00	  120.00	 2355.00	 1440.00	  120.00	 2505.00
 1470.00	  120.00	 2355.00	 1470.00	  120.00	 2505.00
 1500.00	  120.00	 2355.00	 1500.00	  120.00	 2505.00
 1530.00	  120.00	 2355.00	 1530.00	  120.00	 2505.00
 1560.00	  120.00	 2355.00	 1560.00	  120.00	 2505.00
 1590.00	  120.00	 2355.00	 1590.00	  120.00	 2505.00
 1620.00	  120.00	 2355.00	 1620.00	  120.00	 2505.00
 1650.00	  120.00	 2355.00	 1650.00	  120.00	 2505.00
 1680.00	  120.00	 2355.00	 1680.00	  120.00	 2505.00
 1710.00	  120.00	 2355.00	 1710.00	  120.00	 2505.00
 1740.00	  120.00	 2355.00	 1740.00	  120.00	 2505.00
 1770.00	  120.00	 2355.00	 1770.00	  120.00	 2505.00
 1800.00	  120.00	 2355.00	 1800.00	  120.00	 2505.00
    0.00	  150.00	 2355.00	    0.00	  150.00	 2505.00
   30.00	  150.00	 2355.00	   30.00	  150.00	 2505.00
   60.00	  150.00	 2355.00	   60.00	  150.00	 2505.00
   90.00	  150.00	 2355.00	   90.00	  150.00	 2505.00
  120.00	  150.00	 2355.00	  120.00	  150.00	 2505.00
  150.00	  150.00	 2355.00	  150.00	  150.00	 2505.00
  180.00	  150.00	 2355.00	  180.00	  150.00	 2505.00
  210.00	  150.00	 2355.00	  210.00	  150.00	 2505.00
  240.00	  150.00	 2355.00	  240.00	  150.00	 2505.00
  270.00	  150.00	 2355.00	  270.00	  150.00	 2505.00
  300.00	  150.00	 2355.00	  300.00	  150.00	 2505.00
  330.00	  150.00	 2355.00	  330.00	  150.00	 2505.00
  360.00	  150.00	 2355.00	  360.00	  150.00	 2505.00
  390.00	  150.00	 2355.00	  390.00	  150.00	 2505.00
  420.00	  150.00	 2355.00	  420.00	  150.00	 2505.00
  450.00	  150.00	 2355.00	  450.00	  150.00	 2505.00
  480.00	  150.00	 2355.00	  480.00	  150.00	 2505.00
  510.00	  150.00	 2355.00	  510.00	  150.00	 2505.00
  540.00	  150.00	 2355.00	  540.00	  150.00	 2505.00
  570.00	  150.00	 2355.00	  570.00	  150.00	 2505.00
  600.00	  150.00	 2355.00	  600.00	  150.00	 2505.00
  630.00	  150.00	 2355.00	  630.00	  150.00	 2505.00
  660.00	  150.00	 2355.00	  660.00	  150.00	 2505.00
  690.00	  150.00	 2355.00	  690.00	  150.00	 2505.00
  720.00	  150.00	 2355.00	  720.00	  150.00	 2505.00
  750.00	  150.00	 2355.00	  750.00	  150.00	 2505.00
  780.00	  150.00	 2355.00	  780.00	  150.00	 2505.00
  810.00	  150.00	 2355.00	  810.00	  150.00	 2505.00
  840.00	  150.00	 2355.00	  840.00	  150.00	 2505.00
  870.00	  150.00	 2355.00	  870.00	  150.00	 2505.00
  900.00	  150.00	 2355.00	  900.00	  150.00	 2505.00
  930.00	  150.00	 2355.00	  930.00	  150.00	 2505.00
  960.00	  150.00	 2355.00	  960.00	  150.00	 2505.00
  990.00	  150.00	 2355.00	  990.00	  150.00	 2505.00
 1020.00	  150.00	 2355.00	 1020.00	  150.00	 2505.00
 1050.00	  150.00	 2355.00	 1050.00	  150.00	 2505.00
 1080.00	  150.00	 2355.00	 1080.00	  150.00	 2505.00
 1110.00	  150.00	 2355.00	 1110.00	  150.00	 2505.00
 1140.00	  150.00	 2355.00	 1140.00	  150.00	 2505.00
 1170.00	  150.00	 2355.00	 1170.00	  150.00	 2505.00
 1200.00	  150.00	 2355.00	 1200.00	  150.00	 2505.00
 1230.00	  150.00	 2355.00	 1230.00	  150.00	 2505.00
 1260.00	  150.00	 2355.00	 1260.00	  150.00	 2505.00
 1290.00	  150.00	 2355.00	 1290.00	  150.00	 2505.00
 1320.00	  150.00	 2355.00	 1320.00	  150.00	 2505.00
 1350.00	  150.00	 2355.00	 1350.00	  150.00	 2505.00
 1380.00	  150.00	 2355.00	 1380.00	  150.00	 2505.00
 1410.00	  150.00	 2355.00	 1410.00	  150.00	 2505.00
 1440.00	  150.00	 2355.00	 1440.00	  150.00	 2505.00
 1470.00	  150.00	 2355.00	 1470.00	  150.00	 2505.00
 1500.00	  150.00	 2355.00	 1500.00	  150.00	 2505.00
 1530.00	  150.00	 2355.00	 1530.00	  150.00	 2505.00
 1560.00	  150.00	 2355.00	 1560.00	  150.00	 2505.00
 1590.00	  150.00	 2355.00	 1590.00	  150.00	 2505.00
 1620.00	  150.00	 2355.00	 1620.00	  150.00	 2505.00
 1650.00	  150.00	 2355.00	 1650.00	  150.00	 2505.00
 1680.00	  150.00	 2355.00	 1680.00	  150.00	 2505.00
 1710.00	  150.00	 2355.00	 1710.00	  150.00	 2505.00
 1740.00	  150.00	 2355.00	 1740.00	  150.00	 2505.00
 1770.00	  150.00	 2355.00	 1770.00	  150.00	 2505.00
 1800.00	  150.00	 2355.00	 1800.00	  150.00	 2505.00
    0.00	  180.00	 2355.00	    0.00	  180.00	 2505.00
   30.00	  180.00	 2355.00	   30.00	  180.00	 2505.00
   60.00	  180.00	 2355.00	   60.00	  180.00	 2505.00
   90.00	  180.00	 2355.00	   90.00	  180.00	 2505.00
  120.00	  180.00	 2355.00	  120.00	  180.00	 2505.00
  150.00	  180.00	 2355.00	  150.00	  180.00	 2505.00
  180.00	  180.00	 2355.00	  180.00	  180.00	 2505.00
  210.00	  180.00	 2355.00	  210.00	  180.00	 2505.00
  240.00	  180.00	 2355.00	  240.00	  180.00	 2505.00
  270.00	  180.00	 2355.00	  270.00	  180.00	 2505.00
  300.00	  180.00	 2355.00	  300.00	  180.00	 2505.00
  330.00	  180.00	 2355.00	  330.00	  180.00	 2505.00
  360.00	  180.00	 2355.00	  360.00	  180.00	 2505.00
  390.00	  180.00	 2355.00	  390.00	  180.00	 2505.00
  420.00	  180.00	 2355.00	  420.00	  180.00	 2505.00
  450.00	  180.00	 2355.00	  450.00	  180.00	 2505.00
  480.00	  180.00	 2355.00	  480.00	  180.00	 2505.00
  510.00	  180.00	 2355.00	  510.00	  180.00	 2505.00
  540.00	  180.00	 2355.00	  540.00	  180.00	 2505.00
  570.00	  180.00	 2355.00	  570.00	  180.00	 2505.00
  600.00	  180.00	 2355.00	  600.00	  180.00	 2505.00
  630.00	  180.00	 2355.00	  630.00	  180.00	 2505.00
  660.00	  180.00	 2355.00	  660.00	  180.00	 2505.00
  690.00	  180.00	 2355.00	  690.00	  180.00	 2505.00
  720.00	  180.00	 2355.00	  720.00	  180.00	 2505.00
  750.00	  180.00	 2355.00	  750.00	  180.00	 2505.00
  780.00	  180.00	 2355.00	  780.00	  180.00	 2505.00
  810.00	  180.00	 2355.00	  810.00	  180.00	 2505.00
  840.00	  180.00	 2355.00	  840.00	  180.00	 2505.00
  870.00	  180.00	 2355.00	  870.00	  180.00	 2505.00
  900.00	  180.00	 2355.00	  900.00	  180.00	 2505.00
  930.00	  180.00	 2355.00	  930.00	  180.00	 2505.00
  960.00	  180.00	 2355.00	  960.00	  180.00	 2505.00
  990.00	  180.00	 2355.00	  990.00	  180.00	 2505.00
 1020.00	  180.00	 2355.00	 1020.00	  180.00	 2505.00
 1050.00	  180.00	 2355.00	 1050.00	  180.00	 2505.00
 1080.00	  180.00	 2355.00	 1080.00	  180.00	 2505.00
 1110.00	  180.00	 2355.00	 1110.00	  180.00	 2505.00
 1140.00	  180.00	 2355.00	 1140.00	  180.00	 2505.00
 1170.00	  180.00	 2355.00	 1170.00	  180.00	 2505.00
 1200.00	  180.00	 2355.00	 1200.00	  180.00	 2505.00
 1230.00	  180.00	 2355.00	 1230.00	  180.00	 2505.00
 1260.00	  180.00	 2355.00	 1260.00	  180.00	 2505.00
 1290.00	  180.00	 2355.00	 1290.00	  180.00	 2505.00
 1320.00	  180.00	 2355.00	 1320.00	  180.00	 2505.00
 1350.00	  180.00	 2355.00	 1350.00	  180.00	 2505.00
 1380.00	  180.00	 2355.00	 1380.00	  180.00	 2505.00
 1410.00	  180.00	 2355.00	 1410.00	  180.00	 2505.00
 1440.00	  180.00	 2355.00	 1440.00	  180.00	 2505.00
 1470.00	  180.00	 2355.00	 1470.00	  180.00	 2505.00
 1500.00	  180.00	 2355.00	 1500.00	  180.00	 2505.00
 1530.00	  180.00	 2355.00	 1530.00	  180.00	 2505.00
 1560.00	  180.00	 2355.00	 1560.00	  180.00	 2505.00
 1590.00	  180.00	 2355.00	 1590.00	  180.00	 2505.00
 1620.00	  180.00	 2355.00	 1620.00	  180.00	 2505.00
 1650.00	  180.00	 2355.00	 1650.00	  180.00	 2505.00
 1680.00	  180.00	 2355.00	 1680.00	  180.00	 2505.00
 1710.00	  180.00	 2355.00	 1710.00	  180.00	 2505.00
 1740.00	  180.00	 2355.00	 1740.00	  180.00	 2505.00
 1770.00	  180.00	 2355.00	 1770.00	  180.00	 2505.00
 1800.00	  180.00	 2355.00	 1800.00	  180.00	 2505.00
    0.00	  210.00	 2355.00	    0.00	  210.00	 2505.00
   30.00	  210.00	 2355.00	   30.00	  210.00	 2505.00
   60.00	  210.00	 2355.00	   60.00	  210.00	 2505.00
   90.00	  210.00	 2355.00	   90.00	  210.00	 2505.00
  120.00	  210.00	 2355.00	  120.00	  210.00	 2505.00
  150.00	  210.00	 2355.00	  150.00	  210.00	 2505.00
  180.00	  210.00	 2355.00	  180.00	  210.00	 2505.00
  210.00	  210.00	 2355.00	  210.00	  210.00	 2505.00
  240.00	  210.00	 2355.00	  240.00	  210.00	 2505.00
  270.00	  210.00	 2355.00	  270.00	  210.00	 2505.00
  300.00	  210.00	 2355.00	  300.00	  210.00	 2505.00
  330.00	  210.00	 2355.00	  330.00	  210.00	 2505.00
  360.00	  210.00	 2355.00	  360.00	  210.00	 2505.00
  390.00	  210.00	 2355.00	  390.00	  210.00	 2505.00
  420.00	  210.00	 2355.00	  420.00	  210.00	 2505.00
  450.00	  210.00	 2355.00	  450.00	  210.00	 2505.00
  480.00	  210.00	 2355.00	  480.00	  210.00	 2505.00
  510.00	  210.00	 2355.00	  510.00	  210.00	 2505.00
  540.00	  210.00	 2355.00	  540.00	  210.00	 2505.00
  570.00	  210.00	 2355.00	  570.00	  210.00	 2505.00
  600.00	  210.00	 2355.00	  600.00	  210.00	 2505.00
  630.00	  210.00	 2355.00	  630.00	  210.00	 2505.00
  660.00	  210.00	 2355.00	  660.00	  210.00	 2505.00
  690.00	  210.00	 2355.00	  690.00	  210.00	 2505.00
  720.00	  210.00	 2355.00	  720.00	  210.00	 2505.00
  750.00	  210.00	 2355.00	  750.00	  210.00	 2505.00
  780.00	  210.00	 2355.00	  780.00	  210.00	 2505.00
  810.00	  210.00	 2355.00	  810.00	  210.00	 2505.00
  840.00	  210.00	 2355.00	  840.00	  210.00	 2505.00
  870.00	  210.00	 2355.00	  870.00	  210.00	 2505.00
  900.00	  210.00	 2355.00	  900.00	  210.00	 2505.00
  930.00	  210.00	 2355.00	  930.00	  210.00	 2505.00
  960.00	  210.00	 2355.00	  960.00	  210.00	 2505.00
  990.00	  210.00	 2355.00	  990.00	  210.00	 2505.00
 1020.00	  210.00	 2355.00	 1020.00	  210.00	 2505.00
 1050.00	  210.00	 2355.00	 1050.00	  210.00	 2505.00
 1080.00	  210.00	 2355.00	 1080.00	  210.00	 2505.00
 1110.00	  210.00	 2355.00	 1110.00	  210.00	 2505.00
 1140.00	  210.00	 2355.00	 1140.00	  210.00	 2505.00
 1170.00	  210.00	 2355.00	 1170.00	  210.00	 2505.00
 1200.00	  210.00	 2355.00	 1200.00	  210.00	 2505.00
 1230.00	  210.00	 2355.00	 1230.00	  210.00	 2505.00
 1260.00	  210.00	 2355.00	 1260.00	  210.00	 2505.00
 1290.00	  210.00	 2355.00	 1290.00	  210.00	 2505.00
 1320.00	  210.00	 2355.00	 1320.00	  210.00	 2505.00
 1350.00	  210.00	 2355.00	 1350.00	  210.00	 2505.00
 1380.00	  210.00	 2355.00	 1380.00	  210.00	 2505.00
 1410.00	  210.00	 2355.00	 1410.00	  210.00	 2505.00
 1440.00	  210.00	 2355.00	 1440.00	  210.00	 2505.00
 1470.00	  210.00	 2355.00	 1470.00	  210.00	 2505.00
 1500.00	  210.00	 2355.00	 1500.00	  210.00	 2505.00
 1530.00	  210.00	 2355.00	 1530.00	  210.00	 2505.00
 1560.00	  210.00	 2355.00	 1560.00	  210.00	 2505.00
 1590.00	  210.00	 2355.00	 1590.00	  210.00	 2505.00
 1620.00	  210.00	 2355.00	 1620.00	  210.00	 2505.00
 1650.00	  210.00	 2355.00	 1650.00	  210.00	 2505.00
 1680.00	  210.00	 2355.00	 1680.00	  210.00	 2505.00
 1710.00	  210.00	 2355.00	 1710.00	  210.00	 2505.00
 1740.00	  210.00	 2355.00	 1740.00	  210.00	 2505.00
 1770.00	  210.00	 2355.00	 1770.00	  210.00	 2505.00
 1800.00	  210.00	 2355.00	 1800.00	  210.00	 2505.00
    0.00	  240.00	 2355.00	    0.00	  240.00	 2505.00
   30.00	  240.00	 2355.00	   30.00	  240.00	 2505.00
   60.00	  240.00	 2355.00	   60.00	  240.00	 2505.00
   90.00	  240.00	 2355.00	   90.00	  240.00	 2505.00
  120.00	  240.00	 2355.00	  120.00	  240.00	 2505.00
  150.00	  240.00	 2355.00	  150.00	  240.00	 2505.00
  180.00	  240.00	 2355.00	  180.00	  240.00	 2505.00
  210.00	  240.00	 2355.00	  210.00	  240.00	 2505.00
  240.00	  240.00	 2355.00	  240.00	  240.00	 2505.00
  270.00	  240.00	 2355.00	  270.00	  240.00	 2505.00
  300.00	  240.00	 2355.00	  300.00	  240.00	 2505.00
  330.00	  240.00	 2355.00	  330.00	  240.00	 2505.00
  360.00	  240.00	 2355.00	  360.00	  240.00	 2505.00
  390.00	  240.00	 2355.00	  390.00	  240.00	 2505.00
  420.00	  240.00	 2355.00	  420.00	  240.00	 2505.00
  450.00	  240.00	 2355.00	  450.00	  240.00	 2505.00
  480.00	  240.00	 2355.00	  480.00	  240.00	 2505.00
  510.00	  240.00	 2355.00	  510.00	  240.00	 2505.00
  540.00	  240.00	 2355.00	  540.00	  240.00	 2505.00
  570.00	  240.00	 2355.00	  570.00	  240.00	 2505.00
  600.00	  240.00	 2355.00	  600.00	  240.00	 2505.00
  630.00	  240.00	 2355.00	  630.00	  240.00	 2505.00
  660.00	  240.00	 2355.00	  660.00	  240.00	 2505.00
  690.00	  240.00	 2355.00	  690.00	  240.00	 2505.00
  720.00	  240.00	 2355.00	  720.00	  240.00	 2505.00
  750.00	  240.00	 2355.00	  750.00	  240.00	 2505.00
  780.00	  240.00	 2355.00	  780.00	  240.00	 2505.00
  810.00	  240.00	 2355.00	  810.00	  240.00	 2505.00
  840.00	  240.00	 2355.00	  840.00	  240.00	 2505.00
  870.00	  240.00	 2355.00	  870.00	  240.00	 2505.00
  900.00	  240.00	 2355.00	  900.00	  240.00	 2505.00
  930.00	  240.00	 2355.00	  930.00	  240.00	 2505.00
  960.00	  240.00	 2355.00	  960.00	  240.00	 2505.00
  990.00	  240.00	 2355.00	  990.00	  240.00	 2505.00
 1020.00	  240.00	 2355.00	 1020.00	  240.00	 2505.00
 1050.00	  240.00	 2355.00	 1050.00	  240.00	 2505.00
 1080.00	  240.00	 2355.00	 1080.00	  240.00	 2505.00
 1110.00	  240.00	 2355.00	 1110.00	  240.00	 2505.00
 1140.00	  240.00	 2355.00	 1140.00	  240.00	 2505.00
 1170.00	  240.00	 2355.00	 1170.00	  240.00	 2505.00
 1200.00	  240.00	 2355.00	 1200.00	  240.00	 2505.00
 1230.00	  240.00	 2355.00	 1230.00	  240.00	 2505.00
 1260.00	  240.00	 2355.00	 1260.00	  240.00	 2505.00
 1290.00	  240.00	 2355.00	 1290.00	  240.00	 2505.00
 1320.00	  240.00	 2355.00	 1320.00	  240.00	 2505.00
 1350.00	  240.00	 2355.00	 1350.00	  240.00	 2505.00
 1380.00	  240.00	 2355.00	 1380.00	  240.00	 2505.00
 1410.00	  240.00	 2355.00	 1410.00	  240.00	 2505.00
 1440.00	  240.00	 2355.00	 1440.00	  240.00	 2505.00
 1470.00	  240.00	 2355.00	 1470.00	  240.00	 2505.00
 1500.00	  240.00	 2355.00	 1500.00	  240.00	 2505.00
 1530.00	  240.00	 2355.00	 1530.00	  240.00	 2505.00
 1560.00	  240.00	 2355.00	 1560.00	  240.00	 2505.00
 1590.00	  240.00	 2355.00	 1590.00	  240.00	 2505.00
 1620.00	  240.00	 2355.00	 1620.00	  240.00	 2505.00