-- Generated [
-- Exported by: PyReSiTo (single) v1.0
-- Generated ]
SPECGRID
40 20 5 1 F
/
DIMENS  
40 20 5
/
COORD   
    0.00	    0.00	 2355.00	    0.00	    0.00	 2505.00
   45.00	    0.00	 2355.00	   45.00	    0.00	 2505.00
   90.00	    0.00	 2355.00	   90.00	    0.00	 2505.00
  135.00	    0.00	 2355.00	  135.00	    0.00	 2505.00
  180.00	    0.00	 2355.00	  180.00	    0.00	 2505.00
  225.00	    0.00	 2355.00	  225.00	    0.00	 2505.00
  270.00	    0.00	 2355.00	  270.00	    0.00	 2505.00
  315.00	    0.00	 2355.00	  315.00	    0.00	 2505.00
  360.00	    0.00	 2355.00	  360.00	    0.00	 2505.00
  405.00	    0.00	 2355.00	  405.00	    0.00	 2505.00
  450.00	    0.00	 2355.00	  450.00	    0.00	 2505.00
  495.00	    0.00	 2355.00	  495.00	    0.00	 2505.00
  540.00	    0.00	 2355.00	  540.00	    0.00	 2505.00
  585.00	    0.00	 2355.00	  585.00	    0.00	 2505.00
  630.00	    0.00	 2355.00	  630.00	    0.00	 2505.00
  675.00	    0.00	 2355.00	  675.00	    0.00	 2505.00
  720.00	    0.00	 2355.00	  720.00	    0.00	 2505.00
  765.00	    0.00	 2355.00	  765.00	    0.00	 2505.00
  810.00	    0.00	 2355.00	  810.00	    0.00	 2505.00
  855.00	    0.00	 2355.00	  855.00	    0.00	 2505.00
  900.00	    0.00	 2355.00	  900.00	    0.00	 2505.00
  945.00	    0.00	 2355.00	  945.00	    0.00	 2505.00
  990.00	    0.00	 2355.00	  990.00	    0.00	 2505.00
 1035.00	    0.00	 2355.00	 1035.00	    0.00	 2505.00
 1080.00	    0.00	 2355.00	 1080.00	    0.00	 2505.00
 1125.00	    0.00	 2355.00	 1125.00	    0.00	 2505.00
 1170.00	    0.00	 2355.00	 1170.00	    0.00	 2505.00
 1215.00	    0.00	 2355.00	 1215.00	    0.00	 2505.00
 1260.00	    0.00	 2355.00	 1260.00	    0.00	 2505.00
 1305.00	    0.00	 2355.00	 1305.00	    0.00	 2505.00
 1350.00	    0.00	 2355.00	 1350.00	    0.00	 2505.00
 1395.00	    0.00	 2355.00	 1395.00	    0.00	 2505.00
 1440.00	    0.00	 2355.00	 1440.00	    0.00	 2505.00
 1485.00	    0.00	 2355.00	 1485.00	    0.00	 2505.00
 1530.00	    0.00	 2355.00	 1530.00	    0.00	 2505.00
 1575.00	    0.00	 2355.00	 1575.00	    0.00	 2505.00
 1620.00	    0.00	 2355.00	 1620.00	    0.00	 2505.00
 1665.00	    0.00	 2355.00	 1665.00	    0.00	 2505.00
 1710.00	    0.00	 2355.00	 1710.00	    0.00	 2505.00
 1755.00	    0.00	 2355.00	 1755.00	    0.00	 2505.00
 1800.00	    0.00	 2355.00	 1800.00	    0.00	 2505.00
    0.00	   90.00	 2355.00	    0.00	   90.00	 2505.00
   45.00	   90.00	 2355.00	   45.00	   90.00	 2505.00
   90.00	   90.00	 2355.00	   90.00	   90.00	 2505.00
  135.00	   90.00	 2355.00	  135.00	   90.00	 2505.00
  180.00	   90.00	 2355.00	  180.00	   90.00	 2505.00
  225.00	   90.00	 2355.00	  225.00	   90.00	 2505.00
  270.00	   90.00	 2355.00	  270.00	   90.00	 2505.00
  315.00	   90.00	 2355.00	  315.00	   90.00	 2505.00
  360.00	   90.00	 2355.00	  360.00	   90.00	 2505.00
  405.00	   90.00	 2355.00	  405.00	   90.00	 2505.00
  450.00	   90.00	 2355.00	  450.00	   90.00	 2505.00
  495.00	   90.00	 2355.00	  495.00	   90.00	 2505.00
  540.00	   90.00	 2355.00	  540.00	   90.00	 2505.00
  585.00	   90.00	 2355.00	  585.00	   90.00	 2505.00
  630.00	   90.00	 2355.00	  630.00	   90.00	 2505.00
  675.00	   90.00	 2355.00	  675.00	   90.00	 2505.00
  720.00	   90.00	 2355.00	  720.00	   90.00	 2505.00
  765.00	   90.00	 2355.00	  765.00	   90.00	 2505.00
  810.00	   90.00	 2355.00	  810.00	   90.00	 2505.00
  855.00	   90.00	 2355.00	  855.00	   90.00	 2505.00
  900.00	   90.00	 2355.00	  900.00	   90.00	 2505.00
  945.00	   90.00	 2355.00	  945.00	   90.00	 2505.00
  990.00	   90.00	 2355.00	  990.00	   90.00	 2505.00
 1035.00	   90.00	 2355.00	 1035.00	   90.00	 2505.00
 1080.00	   90.00	 2355.00	 1080.00	   90.00	 2505.00
 1125.00	   90.00	 2355.00	 1125.00	   90.00	 2505.00
 1170.00	   90.00	 2355.00	 1170.00	   90.00	 2505.00
 1215.00	   90.00	 2355.00	 1215.00	   90.00	 2505.00
 1260.00	   90.00	 2355.00	 1260.00	   90.00	 2505.00
 1305.00	   90.00	 2355.00	 1305.00	   90.00	 2505.00
 1350.00	   90.00	 2355.00	 1350.00	   90.00	 2505.00
 1395.00	   90.00	 2355.00	 1395.00	   90.00	 2505.00
 1440.00	   90.00	 2355.00	 1440.00	   90.00	 2505.00
 1485.00	   90.00	 2355.00	 1485.00	   90.00	 2505.00
 1530.00	   90.00	 2355.00	 1530.00	   90.00	 2505.00
 1575.00	   90.00	 2355.00	 1575.00	   90.00	 2505.00
 1620.00	   90.00	 2355.00	 1620.00	   90.00	 2505.00
 1665.00	   90.00	 2355.00	 1665.00	   90.00	 2505.00
 1710.00	   90.00	 2355.00	 1710.00	   90.00	 2505.00
 1755.00	   90.00	 2355.00	 1755.00	   90.00	 2505.00
 1800.00	   90.00	 2355.00	 1800.00	   90.00	 2505.00
    0.00	  180.00	 2355.00	    0.00	  180.00	 2505.00
   45.00	  180.00	 2355.00	   45.00	  180.00	 2505.00
   90.00	  180.00	 2355.00	   90.00	  180.00	 2505.00
  135.00	  180.00	 2355.00	  135.00	  180.00	 2505.00
  180.00	  180.00	 2355.00	  180.00	  180.00	 2505.00
  225.00	  180.00	 2355.00	  225.00	  180.00	 2505.00
  270.00	  180.00	 2355.00	  270.00	  180.00	 2505.00
  315.00	  180.00	 2355.00	  315.00	  180.00	 2505.00
  360.00	  180.00	 2355.00	  360.00	  180.00	 2505.00
  405.00	  180.00	 2355.00	  405.00	  180.00	 2505.00
  450.00	  180.00	 2355.00	  450.00	  180.00	 2505.00
  495.00	  180.00	 2355.00	  495.00	  180.00	 2505.00
  540.00	  180.00	 2355.00	  540.00	  180.00	 2505.00
  585.00	  180.00	 2355.00	  585.00	  180.00	 2505.00
  630.00	  180.00	 2355.00	  630.00	  180.00	 2505.00
  675.00	  180.00	 2355.00	  675.00	  180.00	 2505.00
  720.00	  180.00	 2355.00	  720.00	  180.00	 2505.00
  765.00	  180.00	 2355.00	  765.00	  180.00	 2505.00
  810.00	  180.00	 2355.00	  810.00	  180.00	 2505.00
  855.00	  180.00	 2355.00	  855.00	  180.00	 2505.00
  900.00	  180.00	 2355.00	  900.00	  180.00	 2505.00
  945.00	  180.00	 2355.00	  945.00	  180.00	 2505.00
  990.00	  180.00	 2355.00	  990.00	  180.00	 2505.00
 1035.00	  180.00	 2355.00	 1035.00	  180.00	 2505.00
 1080.00	  180.00	 2355.00	 1080.00	  180.00	 2505.00
 1125.00	  180.00	 2355.00	 1125.00	  180.00	 2505.00
 1170.00	  180.00	 2355.00	 1170.00	  180.00	 2505.00
 1215.00	  180.00	 2355.00	 1215.00	  180.00	 2505.00
 1260.00	  180.00	 2355.00	 1260.00	  180.00	 2505.00
 1305.00	  180.00	 2355.00	 1305.00	  180.00	 2505.00
 1350.00	  180.00	 2355.00	 1350.00	  180.00	 2505.00
 1395.00	  180.00	 2355.00	 1395.00	  180.00	 2505.00
 1440.00	  180.00	 2355.00	 1440.00	  180.00	 2505.00
 1485.00	  180.00	 2355.00	 1485.00	  180.00	 2505.00
 1530.00	  180.00	 2355.00	 1530.00	  180.00	 2505.00
 1575.00	  180.00	 2355.00	 1575.00	  180.00	 2505.00
 1620.00	  180.00	 2355.00	 1620.00	  180.00	 2505.00
 1665.00	  180.00	 2355.00	 1665.00	  180.00	 2505.00
 1710.00	  180.00	 2355.00	 1710.00	  180.00	 2505.00
 1755.00	  180.00	 2355.00	 1755.00	  180.00	 2505.00
 1800.00	  180.00	 2355.00	 1800.00	  180.00	 2505.00
    0.00	  270.00	 2355.00	    0.00	  270.00	 2505.00
   45.00	  270.00	 2355.00	   45.00	  270.00	 2505.00
   90.00	  270.00	 2355.00	   90.00	  270.00	 2505.00
  135.00	  270.00	 2355.00	  135.00	  270.00	 2505.00
  180.00	  270.00	 2355.00	  180.00	  270.00	 2505.00
  225.00	  270.00	 2355.00	  225.00	  270.00	 2505.00
  270.00	  270.00	 2355.00	  270.00	  270.00	 2505.00
  315.00	  270.00	 2355.00	  315.00	  270.00	 2505.00
  360.00	  270.00	 2355.00	  360.00	  270.00	 2505.00
  405.00	  270.00	 2355.00	  405.00	  270.00	 2505.00
  450.00	  270.00	 2355.00	  450.00	  270.00	 2505.00
  495.00	  270.00	 2355.00	  495.00	  270.00	 2505.00
  540.00	  270.00	 2355.00	  540.00	  270.00	 2505.00
  585.00	  270.00	 2355.00	  585.00	  270.00	 2505.00
  630.00	  270.00	 2355.00	  630.00	  270.00	 2505.00
  675.00	  270.00	 2355.00	  675.00	  270.00	 2505.00
  720.00	  270.00	 2355.00	  720.00	  270.00	 2505.00
  765.00	  270.00	 2355.00	  765.00	  270.00	 2505.00
  810.00	  270.00	 2355.00	  810.00	  270.00	 2505.00
  855.00	  270.00	 2355.00	  855.00	  270.00	 2505.00
  900.00	  270.00	 2355.00	  900.00	  270.00	 2505.00
  945.00	  270.00	 2355.00	  945.00	  270.00	 2505.00
  990.00	  270.00	 2355.00	  990.00	  270.00	 2505.00
 1035.00	  270.00	 2355.00	 1035.00	  270.00	 2505.00
 1080.00	  270.00	 2355.00	 1080.00	  270.00	 2505.00
 1125.00	  270.00	 2355.00	 1125.00	  270.00	 2505.00
 1170.00	  270.00	 2355.00	 1170.00	  270.00	 2505.00
 1215.00	  270.00	 2355.00	 1215.00	  270.00	 2505.00
 1260.00	  270.00	 2355.00	 1260.00	  270.00	 2505.00
 1305.00	  270.00	 2355.00	 1305.00	  270.00	 2505.00
 1350.00	  270.00	 2355.00	 1350.00	  270.00	 2505.00
 1395.00	  270.00	 2355.00	 1395.00	  270.00	 2505.00
 1440.00	  270.00	 2355.00	 1440.00	  270.00	 2505.00
 1485.00	  270.00	 2355.00	 1485.00	  270.00	 2505.00
 1530.00	  270.00	 2355.00	 1530.00	  270.00	 2505.00
 1575.00	  270.00	 2355.00	 1575.00	  270.00	 2505.00
 1620.00	  270.00	 2355.00	 1620.00	  270.00	 2505.00
 1665.00	  270.00	 2355.00	 1665.00	  270.00	 2505.00
 1710.00	  270.00	 2355.00	 1710.00	  270.00	 2505.00
 1755.00	  270.00	 2355.00	 1755.00	  270.00	 2505.00
 1800.00	  270.00	 2355.00	 1800.00	  270.00	 2505.00
    0.00	  360.00	 2355.00	    0.00	  360.00	 2505.00
   45.00	  360.00	 2355.00	   45.00	  360.00	 2505.00
   90.00	  360.00	 2355.00	   90.00	  360.00	 2505.00
  135.00	  360.00	 2355.00	  135.00	  360.00	 2505.00
  180.00	  360.00	 2355.00	  180.00	  360.00	 2505.00
  225.00	  360.00	 2355.00	  225.00	  360.00	 2505.00
  270.00	  360.00	 2355.00	  270.00	  360.00	 2505.00
  315.00	  360.00	 2355.00	  315.00	  360.00	 2505.00
  360.00	  360.00	 2355.00	  360.00	  360.00	 2505.00
  405.00	  360.00	 2355.00	  405.00	  360.00	 2505.00
  450.00	  360.00	 2355.00	  450.00	  360.00	 2505.00
  495.00	  360.00	 2355.00	  495.00	  360.00	 2505.00
  540.00	  360.00	 2355.00	  540.00	  360.00	 2505.00
  585.00	  360.00	 2355.00	  585.00	  360.00	 2505.00
  630.00	  360.00	 2355.00	  630.00	  360.00	 2505.00
  675.00	  360.00	 2355.00	  675.00	  360.00	 2505.00
  720.00	  360.00	 2355.00	  720.00	  360.00	 2505.00
  765.00	  360.00	 2355.00	  765.00	  360.00	 2505.00
  810.00	  360.00	 2355.00	  810.00	  360.00	 2505.00
  855.00	  360.00	 2355.00	  855.00	  360.00	 2505.00
  900.00	  360.00	 2355.00	  900.00	  360.00	 2505.00
  945.00	  360.00	 2355.00	  945.00	  360.00	 2505.00
  990.00	  360.00	 2355.00	  990.00	  360.00	 2505.00
 1035.00	  360.00	 2355.00	 1035.00	  360.00	 2505.00
 1080.00	  360.00	 2355.00	 1080.00	  360.00	 2505.00
 1125.00	  360.00	 2355.00	 1125.00	  360.00	 2505.00
 1170.00	  360.00	 2355.00	 1170.00	  360.00	 2505.00
 1215.00	  360.00	 2355.00	 1215.00	  360.00	 2505.00
 1260.00	  360.00	 2355.00	 1260.00	  360.00	 2505.00
 1305.00	  360.00	 2355.00	 1305.00	  360.00	 2505.00
 1350.00	  360.00	 2355.00	 1350.00	  360.00	 2505.00
 1395.00	  360.00	 2355.00	 1395.00	  360.00	 2505.00
 1440.00	  360.00	 2355.00	 1440.00	  360.00	 2505.00
 1485.00	  360.00	 2355.00	 1485.00	  360.00	 2505.00
 1530.00	  360.00	 2355.00	 1530.00	  360.00	 2505.00
 1575.00	  360.00	 2355.00	 1575.00	  360.00	 2505.00
 1620.00	  360.00	 2355.00	 1620.00	  360.00	 2505.00
 1665.00	  360.00	 2355.00	 1665.00	  360.00	 2505.00
 1710.00	  360.00	 2355.00	 1710.00	  360.00	 2505.00
 1755.00	  360.00	 2355.00	 1755.00	  360.00	 2505.00
 1800.00	  360.00	 2355.00	 1800.00	  360.00	 2505.00
    0.00	  450.00	 2355.00	    0.00	  450.00	 2505.00
   45.00	  450.00	 2355.00	   45.00	  450.00	 2505.00
   90.00	  450.00	 2355.00	   90.00	  450.00	 2505.00
  135.00	  450.00	 2355.00	  135.00	  450.00	 2505.00
  180.00	  450.00	 2355.00	  180.00	  450.00	 2505.00
  225.00	  450.00	 2355.00	  225.00	  450.00	 2505.00
  270.00	  450.00	 2355.00	  270.00	  450.00	 2505.00
  315.00	  450.00	 2355.00	  315.00	  450.00	 2505.00
  360.00	  450.00	 2355.00	  360.00	  450.00	 2505.00
  405.00	  450.00	 2355.00	  405.00	  450.00	 2505.00
  450.00	  450.00	 2355.00	  450.00	  450.00	 2505.00
  495.00	  450.00	 2355.00	  495.00	  450.00	 2505.00
  540.00	  450.00	 2355.00	  540.00	  450.00	 2505.00
  585.00	  450.00	 2355.00	  585.00	  450.00	 2505.00
  630.00	  450.00	 2355.00	  630.00	  450.00	 2505.00
  675.00	  450.00	 2355.00	  675.00	  450.00	 2505.00
  720.00	  450.00	 2355.00	  720.00	  450.00	 2505.00
  765.00	  450.00	 2355.00	  765.00	  450.00	 2505.00
  810.00	  450.00	 2355.00	  810.00	  450.00	 2505.00
  855.00	  450.00	 2355.00	  855.00	  450.00	 2505.00
  900.00	  450.00	 2355.00	  900.00	  450.00	 2505.00
  945.00	  450.00	 2355.00	  945.00	  450.00	 2505.00
  990.00	  450.00	 2355.00	  990.00	  450.00	 2505.00
 1035.00	  450.00	 2355.00	 1035.00	  450.00	 2505.00
 1080.00	  450.00	 2355.00	 1080.00	  450.00	 2505.00
 1125.00	  450.00	 2355.00	 1125.00	  450.00	 2505.00
 1170.00	  450.00	 2355.00	 1170.00	  450.00	 2505.00
 1215.00	  450.00	 2355.00	 1215.00	  450.00	 2505.00
 1260.00	  450.00	 2355.00	 1260.00	  450.00	 2505.00
 1305.00	  450.00	 2355.00	 1305.00	  450.00	 2505.00
 1350.00	  450.00	 2355.00	 1350.00	  450.00	 2505.00
 1395.00	  450.00	 2355.00	 1395.00	  450.00	 2505.00
 1440.00	  450.00	 2355.00	 1440.00	  450.00	 2505.00
 1485.00	  450.00	 2355.00	 1485.00	  450.00	 2505.00
 1530.00	  450.00	 2355.00	 1530.00	  450.00	 2505.00
 1575.00	  450.00	 2355.00	 1575.00	  450.00	 2505.00
 1620.00	  450.00	 2355.00	 1620.00	  450.00	 2505.00
 1665.00	  450.00	 2355.00	 1665.00	  450.00	 2505.00
 1710.00	  450.00	 2355.00	 1710.00	  450.00	 2505.00
 1755.00	  450.00	 2355.00	 1755.00	  450.00	 2505.00
 1800.00	  450.00	 2355.00	 1800.00	  450.00	 2505.00
    0.00	  540.00	 2355.00	    0.00	  540.00	 2505.00
   45.00	  540.00	 2355.00	   45.00	  540.00	 2505.00
   90.00	  540.00	 2355.00	   90.00	  540.00	 2505.00
  135.00	  540.00	 2355.00	  135.00	  540.00	 2505.00
  180.00	  540.00	 2355.00	  180.00	  540.00	 2505.00
  225.00	  540.00	 2355.00	  225.00	  540.00	 2505.00
  270.00	  540.00	 2355.00	  270.00	  540.00	 2505.00
  315.00	  540.00	 2355.00	  315.00	  540.00	 2505.00
  360.00	  540.00	 2355.00	  360.00	  540.00	 2505.00
  405.00	  540.00	 2355.00	  405.00	  540.00	 2505.00
  450.00	  540.00	 2355.00	  450.00	  540.00	 2505.00
  495.00	  540.00	 2355.00	  495.00	  540.00	 2505.00
  540.00	  540.00	 2355.00	  540.00	  540.00	 2505.00
  585.00	  540.00	 2355.00	  585.00	  540.00	 2505.00
  630.00	  540.00	 2355.00	  630.00	  540.00	 2505.00
  675.00	  540.00	 2355.00	  675.00	  540.00	 2505.00
  720.00	  540.00	 2355.00	  720.00	  540.00	 2505.00
  765.00	  540.00	 2355.00	  765.00	  540.00	 2505.00
  810.00	  540.00	 2355.00	  810.00	  540.00	 2505.00
  855.00	  540.00	 2355.00	  855.00	  540.00	 2505.00
  900.00	  540.00	 2355.00	  900.00	  540.00	 2505.00
  945.00	  540.00	 2355.00	  945.00	  540.00	 2505.00
  990.00	  540.00	 2355.00	  990.00	  540.00	 2505.00
 1035.00	  540.00	 2355.00	 1035.00	  540.00	 2505.00
 1080.00	  540.00	 2355.00	 1080.00	  540.00	 2505.00
 1125.00	  540.00	 2355.00	 1125.00	  540.00	 2505.00
 1170.00	  540.00	 2355.00	 1170.00	  540.00	 2505.00
 1215.00	  540.00	 2355.00	 1215.00	  540.00	 2505.00
 1260.00	  540.00	 2355.00	 1260.00	  540.00	 2505.00
 1305.00	  540.00	 2355.00	 1305.00	  540.00	 2505.00
 1350.00	  540.00	 2355.00	 1350.00	  540.00	 2505.00
 1395.00	  540.00	 2355.00	 1395.00	  540.00	 2505.00
 1440.00	  540.00	 2355.00	 1440.00	  540.00	 2505.00
 1485.00	  540.00	 2355.00	 1485.00	  540.00	 2505.00
 1530.00	  540.00	 2355.00	 1530.00	  540.00	 2505.00
 1575.00	  540.00	 2355.00	 1575.00	  540.00	 2505.00
 1620.00	  540.00	 2355.00	 1620.00	  540.00	 2505.00
 1665.00	  540.00	 2355.00	 1665.00	  540.00	 2505.00
 1710.00	  540.00	 2355.00	 1710.00	  540.00	 2505.00
 1755.00	  540.00	 2355.00	 1755.00	  540.00	 2505.00
 1800.00	  540.00	 2355.00	 1800.00	  540.00	 2505.00
    0.00	  630.00	 2355.00	    0.00	  630.00	 2505.00
   45.00	  630.00	 2355.00	   45.00	  630.00	 2505.00
   90.00	  630.00	 2355.00	   90.00	  630.00	 2505.00
  135.00	  630.00	 2355.00	  135.00	  630.00	 2505.00
  180.00	  630.00	 2355.00	  180.00	  630.00	 2505.00
  225.00	  630.00	 2355.00	  225.00	  630.00	 2505.00
  270.00	  630.00	 2355.00	  270.00	  630.00	 2505.00
  315.00	  630.00	 2355.00	  315.00	  630.00	 2505.00
  360.00	  630.00	 2355.00	  360.00	  630.00	 2505.00
  405.00	  630.00	 2355.00	  405.00	  630.00	 2505.00
  450.00	  630.00	 2355.00	  450.00	  630.00	 2505.00
  495.00	  630.00	 2355.00	  495.00	  630.00	 2505.00
  540.00	  630.00	 2355.00	  540.00	  630.00	 2505.00
  585.00	  630.00	 2355.00	  585.00	  630.00	 2505.00
  630.00	  630.00	 2355.00	  630.00	  630.00	 2505.00
  675.00	  630.00	 2355.00	  675.00	  630.00	 2505.00
  720.00	  630.00	 2355.00	  720.00	  630.00	 2505.00
  765.00	  630.00	 2355.00	  765.00	  630.00	 2505.00
  810.00	  630.00	 2355.00	  810.00	  630.00	 2505.00
  855.00	  630.00	 2355.00	  855.00	  630.00	 2505.00
  900.00	  630.00	 2355.00	  900.00	  630.00	 2505.00
  945.00	  630.00	 2355.00	  945.00	  630.00	 2505.00
  990.00	  630.00	 2355.00	  990.00	  630.00	 2505.00
 1035.00	  630.00	 2355.00	 1035.00	  630.00	 2505.00
 1080.00	  630.00	 2355.00	 1080.00	  630.00	 2505.00
 1125.00	  630.00	 2355.00	 1125.00	  630.00	 2505.00
 1170.00	  630.00	 2355.00	 1170.00	  630.00	 2505.00
 1215.00	  630.00	 2355.00	 1215.00	  630.00	 2505.00
 1260.00	  630.00	 2355.00	 1260.00	  630.00	 2505.00
 1305.00	  630.00	 2355.00	 1305.00	  630.00	 2505.00
 1350.00	  630.00	 2355.00	 1350.00	  630.00	 2505.00
 1395.00	  630.00	 2355.00	 1395.00	  630.00	 2505.00
 1440.00	  630.00	 2355.00	 1440.00	  630.00	 2505.00
 1485.00	  630.00	 2355.00	 1485.00	  630.00	 2505.00
 1530.00	  630.00	 2355.00	 1530.00	  630.00	 2505.00
 1575.00	  630.00	 2355.00	 1575.00	  630.00	 2505.00
 1620.00	  630.00	 2355.00	 1620.00	  630.00	 2505.00
 1665.00	  630.00	 2355.00	 1665.00	  630.00	 2505.00
 1710.00	  630.00	 2355.00	 1710.00	  630.00	 2505.00
 1755.00	  630.00	 2355.00	 1755.00	  630.00	 2505.00
 1800.00	  630.00	 2355.00	 1800.00	  630.00	 2505.00
    0.00	  720.00	 2355.00	    0.00	  720.00	 2505.00
   45.00	  720.00	 2355.00	   45.00	  720.00	 2505.00
   90.00	  720.00	 2355.00	   90.00	  720.00	 2505.00
  135.00	  720.00	 2355.00	  135.00	  720.00	 2505.00
  180.00	  720.00	 2355.00	  180.00	  720.00	 2505.00
  225.00	  720.00	 2355.00	  225.00	  720.00	 2505.00
  270.00	  720.00	 2355.00	  270.00	  720.00	 2505.00
  315.00	  720.00	 2355.00	  315.00	  720.00	 2505.00
  360.00	  720.00	 2355.00	  360.00	  720.00	 2505.00
  405.00	  720.00	 2355.00	  405.00	  720.00	 2505.00
  450.00	  720.00	 2355.00	  450.00	  720.00	 2505.00
  495.00	  720.00	 2355.00	  495.00	  720.00	 2505.00
  540.00	  720.00	 2355.00	  540.00	  720.00	 2505.00
  585.00	  720.00	 2355.00	  585.00	  720.00	 2505.00
  630.00	  720.00	 2355.00	  630.00	  720.00	 2505.00
  675.00	  720.00	 2355.00	  675.00	  720.00	 2505.00
  720.00	  720.00	 2355.00	  720.00	  720.00	 2505.00
  765.00	  720.00	 2355.00	  765.00	  720.00	 2505.00
  810.00	  720.00	 2355.00	  810.00	  720.00	 2505.00
  855.00	  720.00	 2355.00	  855.00	  720.00	 2505.00
  900.00	  720.00	 2355.00	  900.00	  720.00	 2505.00
  945.00	  720.00	 2355.00	  945.00	  720.00	 2505.00
  990.00	  720.00	 2355.00	  990.00	  720.00	 2505.00
 1035.00	  720.00	 2355.00	 1035.00	  720.00	 2505.00
 1080.00	  720.00	 2355.00	 1080.00	  720.00	 2505.00
 1125.00	  720.00	 2355.00	 1125.00	  720.00	 2505.00
 1170.00	  720.00	 2355.00	 1170.00	  720.00	 2505.00
 1215.00	  720.00	 2355.00	 1215.00	  720.00	 2505.00
 1260.00	  720.00	 2355.00	 1260.00	  720.00	 2505.00
 1305.00	  720.00	 2355.00	 1305.00	  720.00	 2505.00
 1350.00	  720.00	 2355.00	 1350.00	  720.00	 2505.00
 1395.00	  720.00	 2355.00	 1395.00	  720.00	 2505.00
 1440.00	  720.00	 2355.00	 1440.00	  720.00	 2505.00
 1485.00	  720.00	 2355.00	 1485.00	  720.00	 2505.00
 1530.00	  720.00	 2355.00	 1530.00	  720.00	 2505.00
 1575.00	  720.00	 2355.00	 1575.00	  720.00	 2505.00
 1620.00	  720.00	 2355.00	 1620.00	  720.00	 2505.00
 1665.00	  720.00	 2355.00	 1665.00	  720.00	 2505.00
 1710.00	  720.00	 2355.00	 1710.00	  720.00	 2505.00
 1755.00	  720.00	 2355.00	 1755.00	  720.00	 2505.00
 1800.00	  720.00	 2355.00	 1800.00	  720.00	 2505.00
    0.00	  810.00	 2355.00	    0.00	  810.00	 2505.00
   45.00	  810.00	 2355.00	   45.00	  810.00	 2505.00
   90.00	  810.00	 2355.00	   90.00	  810.00	 2505.00
  135.00	  810.00	 2355.00	  135.00	  810.00	 2505.00
  180.00	  810.00	 2355.00	  180.00	  810.00	 2505.00
  225.00	  810.00	 2355.00	  225.00	  810.00	 2505.00
  270.00	  810.00	 2355.00	  270.00	  810.00	 2505.00
  315.00	  810.00	 2355.00	  315.00	  810.00	 2505.00
  360.00	  810.00	 2355.00	  360.00	  810.00	 2505.00
  405.00	  810.00	 2355.00	  405.00	  810.00	 2505.00
  450.00	  810.00	 2355.00	  450.00	  810.00	 2505.00
  495.00	  810.00	 2355.00	  495.00	  810.00	 2505.00
  540.00	  810.00	 2355.00	  540.00	  810.00	 2505.00
  585.00	  810.00	 2355.00	  585.00	  810.00	 2505.00
  630.00	  810.00	 2355.00	  630.00	  810.00	 2505.00
  675.00	  810.00	 2355.00	  675.00	  810.00	 2505.00
  720.00	  810.00	 2355.00	  720.00	  810.00	 2505.00
  765.00	  810.00	 2355.00	  765.00	  810.00	 2505.00
  810.00	  810.00	 2355.00	  810.00	  810.00	 2505.00
  855.00	  810.00	 2355.00	  855.00	  810.00	 2505.00
  900.00	  810.00	 2355.00	  900.00	  810.00	 2505.00
  945.00	  810.00	 2355.00	  945.00	  810.00	 2505.00
  990.00	  810.00	 2355.00	  990.00	  810.00	 2505.00
 1035.00	  810.00	 2355.00	 1035.00	  810.00	 2505.00
 1080.00	  810.00	 2355.00	 1080.00	  810.00	 2505.00
 1125.00	  810.00	 2355.00	 1125.00	  810.00	 2505.00
 1170.00	  810.00	 2355.00	 1170.00	  810.00	 2505.00
 1215.00	  810.00	 2355.00	 1215.00	  810.00	 2505.00
 1260.00	  810.00	 2355.00	 1260.00	  810.00	 2505.00
 1305.00	  810.00	 2355.00	 1305.00	  810.00	 2505.00
 1350.00	  810.00	 2355.00	 1350.00	  810.00	 2505.00
 1395.00	  810.00	 2355.00	 1395.00	  810.00	 2505.00
 1440.00	  810.00	 2355.00	 1440.00	  810.00	 2505.00
 1485.00	  810.00	 2355.00	 1485.00	  810.00	 2505.00
 1530.00	  810.00	 2355.00	 1530.00	  810.00	 2505.00
 1575.00	  810.00	 2355.00	 1575.00	  810.00	 2505.00
 1620.00	  810.00	 2355.00	 1620.00	  810.00	 2505.00
 1665.00	  810.00	 2355.00	 1665.00	  810.00	 2505.00
 1710.00	  810.00	 2355.00	 1710.00	  810.00	 2505.00
 1755.00	  810.00	 2355.00	 1755.00	  810.00	 2505.00
 1800.00	  810.00	 2355.00	 1800.00	  810.00	 2505.00
    0.00	  900.00	 2355.00	    0.00	  900.00	 2505.00
   45.00	  900.00	 2355.00	   45.00	  900.00	 2505.00
   90.00	  900.00	 2355.00	   90.00	  900.00	 2505.00
  135.00	  900.00	 2355.00	  135.00	  900.00	 2505.00
  180.00	  900.00	 2355.00	  180.00	  900.00	 2505.00
  225.00	  900.00	 2355.00	  225.00	  900.00	 2505.00
  270.00	  900.00	 2355.00	  270.00	  900.00	 2505.00
  315.00	  900.00	 2355.00	  315.00	  900.00	 2505.00
  360.00	  900.00	 2355.00	  360.00	  900.00	 2505.00
  405.00	  900.00	 2355.00	  405.00	  900.00	 2505.00
  450.00	  900.00	 2355.00	  450.00	  900.00	 2505.00
  495.00	  900.00	 2355.00	  495.00	  900.00	 2505.00
  540.00	  900.00	 2355.00	  540.00	  900.00	 2505.00
  585.00	  900.00	 2355.00	  585.00	  900.00	 2505.00
  630.00	  900.00	 2355.00	  630.00	  900.00	 2505.00
  675.00	  900.00	 2355.00	  675.00	  900.00	 2505.00
  720.00	  900.00	 2355.00	  720.00	  900.00	 2505.00
  765.00	  900.00	 2355.00	  765.00	  900.00	 2505.00
  810.00	  900.00	 2355.00	  810.00	  900.00	 2505.00
  855.00	  900.00	 2355.00	  855.00	  900.00	 2505.00
  900.00	  900.00	 2355.00	  900.00	  900.00	 2505.00
  945.00	  900.00	 2355.00	  945.00	  900.00	 2505.00
  990.00	  900.00	 2355.00	  990.00	  900.00	 2505.00
 1035.00	  900.00	 2355.00	 1035.00	  900.00	 2505.00
 1080.00	  900.00	 2355.00	 1080.00	  900.00	 2505.00
 1125.00	  900.00	 2355.00	 1125.00	  900.00	 2505.00
 1170.00	  900.00	 2355.00	 1170.00	  900.00	 2505.00
 1215.00	  900.00	 2355.00	 1215.00	  900.00	 2505.00
 1260.00	  900.00	 2355.00	 1260.00	  900.00	 2505.00
 1305.00	  900.00	 2355.00	 1305.00	  900.00	 2505.00
 1350.00	  900.00	 2355.00	 1350.00	  900.00	 2505.00
 1395.00	  900.00	 2355.00	 1395.00	  900.00	 2505.00
 1440.00	  900.00	 2355.00	 1440.00	  900.00	 2505.00
 1485.00	  900.00	 2355.00	 1485.00	  900.00	 2505.00
 1530.00	  900.00	 2355.00	 1530.00	  900.00	 2505.00
 1575.00	  900.00	 2355.00	 1575.00	  900.00	 2505.00
 1620.00	  900.00	 2355.00	 1620.00	  900.00	 2505.00
 1665.00	  900.00	 2355.00	 1665.00	  900.00	 2505.00
 1710.00	  900.00	 2355.00	 1710.00	  900.00	 2505.00
 1755.00	  900.00	 2355.00	 1755.00	  900.00	 2505.00
 1800.00	  900.00	 2355.00	 1800.00	  900.00	 2505.00
    0.00	  990.00	 2355.00	    0.00	  990.00	 2505.00
   45.00	  990.00	 2355.00	   45.00	  990.00	 2505.00
   90.00	  990.00	 2355.00	   90.00	  990.00	 2505.00
  135.00	  990.00	 2355.00	  135.00	  990.00	 2505.00
  180.00	  990.00	 2355.00	  180.00	  990.00	 2505.00
  225.00	  990.00	 2355.00	  225.00	  990.00	 2505.00
  270.00	  990.00	 2355.00	  270.00	  990.00	 2505.00
  315.00	  990.00	 2355.00	  315.00	  990.00	 2505.00
  360.00	  990.00	 2355.00	  360.00	  990.00	 2505.00
  405.00	  990.00	 2355.00	  405.00	  990.00	 2505.00
  450.00	  990.00	 2355.00	  450.00	  990.00	 2505.00
  495.00	  990.00	 2355.00	  495.00	  990.00	 2505.00
  540.00	  990.00	 2355.00	  540.00	  990.00	 2505.00
  585.00	  990.00	 2355.00	  585.00	  990.00	 2505.00
  630.00	  990.00	 2355.00	  630.00	  990.00	 2505.00
  675.00	  990.00	 2355.00	  675.00	  990.00	 2505.00
  720.00	  990.00	 2355.00	  720.00	  990.00	 2505.00
  765.00	  990.00	 2355.00	  765.00	  990.00	 2505.00
  810.00	  990.00	 2355.00	  810.00	  990.00	 2505.00
  855.00	  990.00	 2355.00	  855.00	  990.00	 2505.00
  900.00	  990.00	 2355.00	  900.00	  990.00	 2505.00
  945.00	  990.00	 2355.00	  945.00	  990.00	 2505.00
  990.00	  990.00	 2355.00	  990.00	  990.00	 2505.00
 1035.00	  990.00	 2355.00	 1035.00	  990.00	 2505.00
 1080.00	  990.00	 2355.00	 1080.00	  990.00	 2505.00
 1125.00	  990.00	 2355.00	 1125.00	  990.00	 2505.00
 1170.00	  990.00	 2355.00	 1170.00	  990.00	 2505.00
 1215.00	  990.00	 2355.00	 1215.00	  990.00	 2505.00
 1260.00	  990.00	 2355.00	 1260.00	  990.00	 2505.00
 1305.00	  990.00	 2355.00	 1305.00	  990.00	 2505.00
 1350.00	  990.00	 2355.00	 1350.00	  990.00	 2505.00
 1395.00	  990.00	 2355.00	 1395.00	  990.00	 2505.00
 1440.00	  990.00	 2355.00	 1440.00	  990.00	 2505.00
 1485.00	  990.00	 2355.00	 1485.00	  990.00	 2505.00
 1530.00	  990.00	 2355.00	 1530.00	  990.00	 2505.00
 1575.00	  990.00	 2355.00	 1575.00	  990.00	 2505.00
 1620.00	  990.00	 2355.00	 1620.00	  990.00	 2505.00
 1665.00	  990.00	 2355.00	 1665.00	  990.00	 2505.00
 1710.00	  990.00	 2355.00	 1710.00	  990.00	 2505.00
 1755.00	  990.00	 2355.00	 1755.00	  990.00	 2505.00
 1800.00	  990.00	 2355.00	 1800.00	  990.00	 2505.00
    0.00	 1080.00	 2355.00	    0.00	 1080.00	 2505.00
   45.00	 1080.00	 2355.00	   45.00	 1080.00	 2505.00
   90.00	 1080.00	 2355.00	   90.00	 1080.00	 2505.00
  135.00	 1080.00	 2355.00	  135.00	 1080.00	 2505.00
  180.00	 1080.00	 2355.00	  180.00	 1080.00	 2505.00
  225.00	 1080.00	 2355.00	  225.00	 1080.00	 2505.00
  270.00	 1080.00	 2355.00	  270.00	 1080.00	 2505.00
  315.00	 1080.00	 2355.00	  315.00	 1080.00	 2505.00
  360.00	 1080.00	 2355.00	  360.00	 1080.00	 2505.00
  405.00	 1080.00	 2355.00	  405.00	 1080.00	 2505.00
  450.00	 1080.00	 2355.00	  450.00	 1080.00	 2505.00
  495.00	 1080.00	 2355.00	  495.00	 1080.00	 2505.00
  540.00	 1080.00	 2355.00	  540.00	 1080.00	 2505.00
  585.00	 1080.00	 2355.00	  585.00	 1080.00	 2505.00
  630.00	 1080.00	 2355.00	  630.00	 1080.00	 2505.00
  675.00	 1080.00	 2355.00	  675.00	 1080.00	 2505.00
  720.00	 1080.00	 2355.00	  720.00	 1080.00	 2505.00
  765.00	 1080.00	 2355.00	  765.00	 1080.00	 2505.00
  810.00	 1080.00	 2355.00	  810.00	 1080.00	 2505.00
  855.00	 1080.00	 2355.00	  855.00	 1080.00	 2505.00
  900.00	 1080.00	 2355.00	  900.00	 1080.00	 2505.00
  945.00	 1080.00	 2355.00	  945.00	 1080.00	 2505.00
  990.00	 1080.00	 2355.00	  990.00	 1080.00	 2505.00
 1035.00	 1080.00	 2355.00	 1035.00	 1080.00	 2505.00
 1080.00	 1080.00	 2355.00	 1080.00	 1080.00	 2505.00
 1125.00	 1080.00	 2355.00	 1125.00	 1080.00	 2505.00
 1170.00	 1080.00	 2355.00	 1170.00	 1080.00	 2505.00
 1215.00	 1080.00	 2355.00	 1215.00	 1080.00	 2505.00
 1260.00	 1080.00	 2355.00	 1260.00	 1080.00	 2505.00
 1305.00	 1080.00	 2355.00	 1305.00	 1080.00	 2505.00
 1350.00	 1080.00	 2355.00	 1350.00	 1080.00	 2505.00
 1395.00	 1080.00	 2355.00	 1395.00	 1080.00	 2505.00
 1440.00	 1080.00	 2355.00	 1440.00	 1080.00	 2505.00
 1485.00	 1080.00	 2355.00	 1485.00	 1080.00	 2505.00
 1530.00	 1080.00	 2355.00	 1530.00	 1080.00	 2505.00
 1575.00	 1080.00	 2355.00	 1575.00	 1080.00	 2505.00
 1620.00	 1080.00	 2355.00	 1620.00	 1080.00	 2505.00
 1665.00	 1080.00	 2355.00	 1665.00	 1080.00	 2505.00
 1710.00	 1080.00	 2355.00	 1710.00	 1080.00	 2505.00
 1755.00	 1080.00	 2355.00	 1755.00	 1080.00	 2505.00
 1800.00	 1080.00	 2355.00	 1800.00	 1080.00	 2505.00
    0.00	 1170.00	 2355.00	    0.00	 1170.00	 2505.00
   45.00	 1170.00	 2355.00	   45.00	 1170.00	 2505.00
   90.00	 1170.00	 2355.00	   90.00	 1170.00	 2505.00
  135.00	 1170.00	 2355.00	  135.00	 1170.00	 2505.00
  180.00	 1170.00	 2355.00	  180.00	 1170.00	 2505.00
  225.00	 1170.00	 2355.00	  225.00	 1170.00	 2505.00
  270.00	 1170.00	 2355.00	  270.00	 1170.00	 2505.00
  315.00	 1170.00	 2355.00	  315.00	 1170.00	 2505.00
  360.00	 1170.00	 2355.00	  360.00	 1170.00	 2505.00
  405.00	 1170.00	 2355.00	  405.00	 1170.00	 2505.00